version 3
run General-0-20221124-22:38:45-38514
attr configname General
attr datetime 20221124-22:38:45
attr datetimef 20221124-223845
attr experiment General
attr inifile omnetpp.ini
attr iterationvars ""
attr iterationvarsd ""
attr iterationvarsf ""
attr measurement ""
attr network VideoStreamingShowcase
attr processid 38514
attr repetition 0
attr replication #0
attr resultdir results
attr runnumber 0
attr seedset 0
config image-path /home/daedluz/Programs/omnet/workspace/inet/images
config network VideoStreamingShowcase
config scheduler-class inet::RealTimeScheduler
config sim-time-limit 30s
config **.crcMode "\"computed\""
config **.fcsMode "\"computed\""
config *.host1.eth[0].typename ExtUpperEthernetInterface
config *.host1.eth[0].device "\"tapa\""
config *.host1.eth[0].copyConfiguration "\"copyFromExt\""
config *.host2.eth[0].typename ExtUpperEthernetInterface
config *.host2.eth[0].device "\"tapb\""
config *.host2.eth[0].copyConfiguration "\"copyFromExt\""
config *.host2.numPcapRecorders 1
config *.host2.pcapRecorder[*].pcapFile "\"results/host2.pcap\""
config *.configurator.config "xml(\"<config>                                 <interface hosts='router' names='eth0' address='192.168.2.99' netmask='255.255.255.0'/>                                 <interface hosts='router' names='eth1' address='192.168.3.99' netmask='255.255.255.0'/>                              </config>\")"
config *.router.ipv4.natTable.config "xml(\"<config>                                         <entry type='prerouting'                                         packetDataFilter='*Ipv4Header and destAddress=~192.168.2.99'                                         srcAddress='192.168.3.99' destAddress='192.168.3.20'/>                                         <entry type='prerouting'                                         packetDataFilter='*Ipv4Header and destAddress=~192.168.3.99'                                         srcAddress='192.168.2.99' destAddress='192.168.2.20'/>                                      </config>\")"
config *.radioMedium.backgroundNoise.typename IsotropicScalarBackgroundNoise
config *.radioMedium.backgroundNoise.power "-110 dBm"
config *.visualizer.*.interfaceTableVisualizer.displayInterfaceTables true
config *.visualizer.*.interfaceTableVisualizer.nodeFilter "\"not name=~switch*\""
config **.duplexMode true
config **.eth*.bitrate 10Mbps

vector 0 VideoStreamingShowcase.switch1.eth[0].mac.queue queueLength:vector ETV
attr autoWarmupFilter false
attr interpolationmode sample-hold
attr recordingmode vector
attr source "warmup(count(packetPushed) - count(packetPulled) - count(packetRemoved) - count(packetDropped))"
attr title "queue length"
attr type int
vector 1 VideoStreamingShowcase.switch1.eth[1].mac.queue queueLength:vector ETV
attr autoWarmupFilter false
attr interpolationmode sample-hold
attr recordingmode vector
attr source "warmup(count(packetPushed) - count(packetPulled) - count(packetRemoved) - count(packetDropped))"
attr title "queue length"
attr type int
vector 2 VideoStreamingShowcase.switch2.eth[0].mac.queue queueLength:vector ETV
attr autoWarmupFilter false
attr interpolationmode sample-hold
attr recordingmode vector
attr source "warmup(count(packetPushed) - count(packetPulled) - count(packetRemoved) - count(packetDropped))"
attr title "queue length"
attr type int
vector 3 VideoStreamingShowcase.switch2.eth[1].mac.queue queueLength:vector ETV
attr autoWarmupFilter false
attr interpolationmode sample-hold
attr recordingmode vector
attr source "warmup(count(packetPushed) - count(packetPulled) - count(packetRemoved) - count(packetDropped))"
attr title "queue length"
attr type int
vector 4 VideoStreamingShowcase.router.eth[0].mac.queue queueLength:vector ETV
attr autoWarmupFilter false
attr interpolationmode sample-hold
attr recordingmode vector
attr source "warmup(count(packetPushed) - count(packetPulled) - count(packetRemoved) - count(packetDropped))"
attr title "queue length"
attr type int
vector 5 VideoStreamingShowcase.router.eth[1].mac.queue queueLength:vector ETV
attr autoWarmupFilter false
attr interpolationmode sample-hold
attr recordingmode vector
attr source "warmup(count(packetPushed) - count(packetPulled) - count(packetRemoved) - count(packetDropped))"
attr title "queue length"
attr type int
vector 6 VideoStreamingShowcase.host1.eth[0].mac.queue queueLength:vector ETV
attr autoWarmupFilter false
attr interpolationmode sample-hold
attr recordingmode vector
attr source "warmup(count(packetPushed) - count(packetPulled) - count(packetRemoved) - count(packetDropped))"
attr title "queue length"
attr type int
vector 7 VideoStreamingShowcase.host1.udp passedUpPk:vector(count) ETV
attr interpolationmode none
attr recordingmode vector(count)
attr source packetSentToUpper
attr title "packets passed up, count"
vector 8 VideoStreamingShowcase.host1.udp droppedPkWrongPort:vector(count) ETV
attr interpolationmode none
attr recordingmode vector(count)
attr source packetDropReasonIsNoPortFound(packetDropped)
attr title "packets dropped (wrong port), count"
vector 9 VideoStreamingShowcase.host1.udp droppedPkBadChecksum:vector(count) ETV
attr interpolationmode none
attr recordingmode vector(count)
attr source packetDropReasonIsIncorrectlyReceived(packetDropped)
attr title "packets dropped (checksum error), count"
vector 10 VideoStreamingShowcase.host2.eth[0].mac.queue queueLength:vector ETV
attr autoWarmupFilter false
attr interpolationmode sample-hold
attr recordingmode vector
attr source "warmup(count(packetPushed) - count(packetPulled) - count(packetRemoved) - count(packetDropped))"
attr title "queue length"
attr type int
vector 11 VideoStreamingShowcase.host2.udp passedUpPk:vector(count) ETV
attr interpolationmode none
attr recordingmode vector(count)
attr source packetSentToUpper
attr title "packets passed up, count"
vector 12 VideoStreamingShowcase.host2.udp droppedPkWrongPort:vector(count) ETV
attr interpolationmode none
attr recordingmode vector(count)
attr source packetDropReasonIsNoPortFound(packetDropped)
attr title "packets dropped (wrong port), count"
vector 13 VideoStreamingShowcase.host2.udp droppedPkBadChecksum:vector(count) ETV
attr interpolationmode none
attr recordingmode vector(count)
attr source packetDropReasonIsIncorrectlyReceived(packetDropped)
attr title "packets dropped (checksum error), count"
vector 14 VideoStreamingShowcase.host3.wlan[0].mac.dcf frameSequenceActive:vector ETV
attr autoWarmupFilter false
attr interpolationmode sample-hold
attr recordingmode vector
attr source warmup(count(frameSequenceStarted)-count(frameSequenceFinished))
attr title "frame sequence active"
vector 15 VideoStreamingShowcase.host3.wlan[0].mac.dcf.channelAccess.pendingQueue queueLength:vector ETV
attr autoWarmupFilter false
attr interpolationmode sample-hold
attr recordingmode vector
attr source "warmup(count(packetPushed) - count(packetPulled) - count(packetRemoved) - count(packetDropped))"
attr title "queue length"
attr type int
vector 16 VideoStreamingShowcase.host3.wlan[0].mac.dcf.channelAccess.inProgressFrames queueLength:vector ETV
attr autoWarmupFilter false
attr interpolationmode sample-hold
attr recordingmode vector
attr source "warmup(count(packetEnqueued) - count(packetDequeued))"
attr title "queue length"
vector 17 VideoStreamingShowcase.host3.wlan[0].mac.dcf.channelAccess.contention backoffActive:vector ETV
attr autoWarmupFilter false
attr interpolationmode sample-hold
attr recordingmode vector
attr source warmup(count(backoffStarted)-count(backoffStopped))
attr title "backoff active"
vector 18 VideoStreamingShowcase.host3.udp passedUpPk:vector(count) ETV
attr interpolationmode none
attr recordingmode vector(count)
attr source packetSentToUpper
attr title "packets passed up, count"
vector 19 VideoStreamingShowcase.host3.udp droppedPkWrongPort:vector(count) ETV
attr interpolationmode none
attr recordingmode vector(count)
attr source packetDropReasonIsNoPortFound(packetDropped)
attr title "packets dropped (wrong port), count"
vector 20 VideoStreamingShowcase.host3.udp droppedPkBadChecksum:vector(count) ETV
attr interpolationmode none
attr recordingmode vector(count)
attr source packetDropReasonIsIncorrectlyReceived(packetDropped)
attr title "packets dropped (checksum error), count"
vector 21 VideoStreamingShowcase.host4.wlan[0].mac.dcf frameSequenceActive:vector ETV
attr autoWarmupFilter false
attr interpolationmode sample-hold
attr recordingmode vector
attr source warmup(count(frameSequenceStarted)-count(frameSequenceFinished))
attr title "frame sequence active"
vector 22 VideoStreamingShowcase.host4.wlan[0].mac.dcf.channelAccess.pendingQueue queueLength:vector ETV
attr autoWarmupFilter false
attr interpolationmode sample-hold
attr recordingmode vector
attr source "warmup(count(packetPushed) - count(packetPulled) - count(packetRemoved) - count(packetDropped))"
attr title "queue length"
attr type int
vector 23 VideoStreamingShowcase.host4.wlan[0].mac.dcf.channelAccess.inProgressFrames queueLength:vector ETV
attr autoWarmupFilter false
attr interpolationmode sample-hold
attr recordingmode vector
attr source "warmup(count(packetEnqueued) - count(packetDequeued))"
attr title "queue length"
vector 24 VideoStreamingShowcase.host4.wlan[0].mac.dcf.channelAccess.contention backoffActive:vector ETV
attr autoWarmupFilter false
attr interpolationmode sample-hold
attr recordingmode vector
attr source warmup(count(backoffStarted)-count(backoffStopped))
attr title "backoff active"
vector 25 VideoStreamingShowcase.host4.udp passedUpPk:vector(count) ETV
attr interpolationmode none
attr recordingmode vector(count)
attr source packetSentToUpper
attr title "packets passed up, count"
vector 26 VideoStreamingShowcase.host4.udp droppedPkWrongPort:vector(count) ETV
attr interpolationmode none
attr recordingmode vector(count)
attr source packetDropReasonIsNoPortFound(packetDropped)
attr title "packets dropped (wrong port), count"
vector 27 VideoStreamingShowcase.host4.udp droppedPkBadChecksum:vector(count) ETV
attr interpolationmode none
attr recordingmode vector(count)
attr source packetDropReasonIsIncorrectlyReceived(packetDropped)
attr title "packets dropped (checksum error), count"
vector 28 VideoStreamingShowcase.host3.wlan[0].radio radioMode:vector ETV
attr interpolationmode sample-hold
attr recordingmode vector
attr source radioModeChanged
attr title "Radio mode"
vector 29 VideoStreamingShowcase.host3.wlan[0].radio radioChannel:vector ETV
attr interpolationmode sample-hold
attr recordingmode vector
attr source radioChannelChanged
attr title "Radio channel"
vector 30 VideoStreamingShowcase.host4.wlan[0].radio radioMode:vector ETV
attr interpolationmode sample-hold
attr recordingmode vector
attr source radioModeChanged
attr title "Radio mode"
vector 31 VideoStreamingShowcase.host4.wlan[0].radio radioChannel:vector ETV
attr interpolationmode sample-hold
attr recordingmode vector
attr source radioChannelChanged
attr title "Radio channel"
vector 32 VideoStreamingShowcase.host3.wlan[0].radio receptionState:vector ETV
attr interpolationmode sample-hold
attr recordingmode vector
attr source receptionStateChanged
attr title "Radio reception state"
vector 33 VideoStreamingShowcase.host3.wlan[0].mac.dcf.channelAccess.contention stateChanged:vector ETV
attr enum IDLE,DEFER,IFS_AND_BACKOFF
attr interpolationmode none
attr recordingmode vector
attr title "contention state changed"
attr type enum
vector 34 VideoStreamingShowcase.host4.wlan[0].radio receptionState:vector ETV
attr interpolationmode sample-hold
attr recordingmode vector
attr source receptionStateChanged
attr title "Radio reception state"
vector 35 VideoStreamingShowcase.host4.wlan[0].mac.dcf.channelAccess.contention stateChanged:vector ETV
attr enum IDLE,DEFER,IFS_AND_BACKOFF
attr interpolationmode none
attr recordingmode vector
attr title "contention state changed"
attr type enum
vector 36 VideoStreamingShowcase.host3.wlan[0].mac.dcf.recoveryProcedure contentionWindowChanged:vector ETV
attr interpolationmode sample-hold
attr recordingmode vector
attr title "contention window"
vector 37 VideoStreamingShowcase.host4.wlan[0].mac.dcf.recoveryProcedure contentionWindowChanged:vector ETV
attr interpolationmode sample-hold
attr recordingmode vector
attr title "contention window"
vector 38 VideoStreamingShowcase.host1.eth[0].tap packetReceived:vector(packetBytes) ETV
attr interpolationmode none
attr recordingmode vector(packetBytes)
attr source packetReceived
attr title "packets received, packetBytes"
vector 39 VideoStreamingShowcase.host1.eth[0].tap packetSentFromLower:vector(packetBytes) ETV
attr interpolationmode none
attr recordingmode vector(packetBytes)
attr source packetSentToLower
attr title "packets sent to higher layer, packetBytes"
vector 40 VideoStreamingShowcase.host2.eth[0].tap packetReceived:vector(packetBytes) ETV
attr interpolationmode none
attr recordingmode vector(packetBytes)
attr source packetReceived
attr title "packets received, packetBytes"
vector 41 VideoStreamingShowcase.host2.eth[0].tap packetSentFromLower:vector(packetBytes) ETV
attr interpolationmode none
attr recordingmode vector(packetBytes)
attr source packetSentToLower
attr title "packets sent to higher layer, packetBytes"
vector 42 VideoStreamingShowcase.host1.eth[0].mac packetReceivedFromUpper:vector(packetBytes) ETV
attr interpolationmode none
attr recordingmode vector(packetBytes)
attr source packetReceivedFromUpper
attr title "packet bytes from higher layer, packetBytes"
vector 43 VideoStreamingShowcase.host1.eth[0].mac.queue packetPushed:vector(packetBytes) ETV
attr interpolationmode none
attr recordingmode vector(packetBytes)
attr title "packet pushed, packetBytes"
vector 44 VideoStreamingShowcase.host1.eth[0].mac.queue packetPulled:vector(packetBytes) ETV
attr interpolationmode none
attr recordingmode vector(packetBytes)
attr title "packet pulled, packetBytes"
vector 45 VideoStreamingShowcase.host1.eth[0].mac.queue queueingTime:vector ETV
attr interpolationmode none
attr recordingmode vector
attr source queueingTime(packetPulled)
attr title "queueing times"
attr unit s
vector 46 VideoStreamingShowcase.host2.eth[0].mac packetReceivedFromUpper:vector(packetBytes) ETV
attr interpolationmode none
attr recordingmode vector(packetBytes)
attr source packetReceivedFromUpper
attr title "packet bytes from higher layer, packetBytes"
vector 47 VideoStreamingShowcase.host2.eth[0].mac.queue packetPushed:vector(packetBytes) ETV
attr interpolationmode none
attr recordingmode vector(packetBytes)
attr title "packet pushed, packetBytes"
vector 48 VideoStreamingShowcase.host2.eth[0].mac.queue packetPulled:vector(packetBytes) ETV
attr interpolationmode none
attr recordingmode vector(packetBytes)
attr title "packet pulled, packetBytes"
vector 49 VideoStreamingShowcase.host2.eth[0].mac.queue queueingTime:vector ETV
attr interpolationmode none
attr recordingmode vector
attr source queueingTime(packetPulled)
attr title "queueing times"
attr unit s
vector 50 VideoStreamingShowcase.host1.eth[0].mac txPk:vector(packetBytes) ETV
attr interpolationmode none
attr recordingmode vector(packetBytes)
attr source packetSentToLower
attr title "packets transmitted, packetBytes"
vector 51 VideoStreamingShowcase.host2.eth[0].mac txPk:vector(packetBytes) ETV
attr interpolationmode none
attr recordingmode vector(packetBytes)
attr source packetSentToLower
attr title "packets transmitted, packetBytes"
vector 52 VideoStreamingShowcase.switch1.eth[0].mac rxPkOk:vector(packetBytes) ETV
attr interpolationmode none
attr recordingmode vector(packetBytes)
attr source rxPkOk
attr title "packets received OK, packetBytes"
vector 53 VideoStreamingShowcase.switch1.eth[0].mac passedUpPk:vector(packetBytes) ETV
attr interpolationmode none
attr recordingmode vector(packetBytes)
attr source packetSentToUpper
attr title "packets passed to higher layer, packetBytes"
vector 54 VideoStreamingShowcase.switch2.eth[1].mac rxPkOk:vector(packetBytes) ETV
attr interpolationmode none
attr recordingmode vector(packetBytes)
attr source rxPkOk
attr title "packets received OK, packetBytes"
vector 55 VideoStreamingShowcase.switch2.eth[1].mac passedUpPk:vector(packetBytes) ETV
attr interpolationmode none
attr recordingmode vector(packetBytes)
attr source packetSentToUpper
attr title "packets passed to higher layer, packetBytes"
vector 56 VideoStreamingShowcase.switch1.eth[1].mac packetReceivedFromUpper:vector(packetBytes) ETV
attr interpolationmode none
attr recordingmode vector(packetBytes)
attr source packetReceivedFromUpper
attr title "packet bytes from higher layer, packetBytes"
vector 57 VideoStreamingShowcase.switch1.eth[1].mac.queue packetPushed:vector(packetBytes) ETV
attr interpolationmode none
attr recordingmode vector(packetBytes)
attr title "packet pushed, packetBytes"
vector 58 VideoStreamingShowcase.switch1.eth[1].mac.queue packetPulled:vector(packetBytes) ETV
attr interpolationmode none
attr recordingmode vector(packetBytes)
attr title "packet pulled, packetBytes"
vector 59 VideoStreamingShowcase.switch1.eth[1].mac.queue queueingTime:vector ETV
attr interpolationmode none
attr recordingmode vector
attr source queueingTime(packetPulled)
attr title "queueing times"
attr unit s
vector 60 VideoStreamingShowcase.switch2.eth[0].mac packetReceivedFromUpper:vector(packetBytes) ETV
attr interpolationmode none
attr recordingmode vector(packetBytes)
attr source packetReceivedFromUpper
attr title "packet bytes from higher layer, packetBytes"
vector 61 VideoStreamingShowcase.switch2.eth[0].mac.queue packetPushed:vector(packetBytes) ETV
attr interpolationmode none
attr recordingmode vector(packetBytes)
attr title "packet pushed, packetBytes"
vector 62 VideoStreamingShowcase.switch2.eth[0].mac.queue packetPulled:vector(packetBytes) ETV
attr interpolationmode none
attr recordingmode vector(packetBytes)
attr title "packet pulled, packetBytes"
vector 63 VideoStreamingShowcase.switch2.eth[0].mac.queue queueingTime:vector ETV
attr interpolationmode none
attr recordingmode vector
attr source queueingTime(packetPulled)
attr title "queueing times"
attr unit s
vector 64 VideoStreamingShowcase.switch1.eth[1].mac txPk:vector(packetBytes) ETV
attr interpolationmode none
attr recordingmode vector(packetBytes)
attr source packetSentToLower
attr title "packets transmitted, packetBytes"
vector 65 VideoStreamingShowcase.switch2.eth[0].mac txPk:vector(packetBytes) ETV
attr interpolationmode none
attr recordingmode vector(packetBytes)
attr source packetSentToLower
attr title "packets transmitted, packetBytes"
vector 66 VideoStreamingShowcase.router.eth[0].mac rxPkOk:vector(packetBytes) ETV
attr interpolationmode none
attr recordingmode vector(packetBytes)
attr source rxPkOk
attr title "packets received OK, packetBytes"
vector 67 VideoStreamingShowcase.router.eth[0].mac passedUpPk:vector(packetBytes) ETV
attr interpolationmode none
attr recordingmode vector(packetBytes)
attr source packetSentToUpper
attr title "packets passed to higher layer, packetBytes"
vector 68 VideoStreamingShowcase.router.eth[1].mac rxPkOk:vector(packetBytes) ETV
attr interpolationmode none
attr recordingmode vector(packetBytes)
attr source rxPkOk
attr title "packets received OK, packetBytes"
vector 69 VideoStreamingShowcase.router.eth[1].mac passedUpPk:vector(packetBytes) ETV
attr interpolationmode none
attr recordingmode vector(packetBytes)
attr source packetSentToUpper
attr title "packets passed to higher layer, packetBytes"
vector 70 VideoStreamingShowcase.router.eth[1].encap decapPk:vector(packetBytes) ETV
attr interpolationmode none
attr recordingmode vector(packetBytes)
attr source decapPk
attr title "packets decapsulated, packetBytes"
vector 71 VideoStreamingShowcase.router.ipv4.arp arpReplySent:vector(packetBytes) ETV
attr recordingmode vector(packetBytes)
attr source arpReplySent
attr title "ARP replies sent, packetBytes"
vector 72 VideoStreamingShowcase.router.eth[1].encap encapPk:vector(packetBytes) ETV
attr interpolationmode none
attr recordingmode vector(packetBytes)
attr source encapPk
attr title "packets encapsulated, packetBytes"
vector 73 VideoStreamingShowcase.router.eth[1].mac packetReceivedFromUpper:vector(packetBytes) ETV
attr interpolationmode none
attr recordingmode vector(packetBytes)
attr source packetReceivedFromUpper
attr title "packet bytes from higher layer, packetBytes"
vector 74 VideoStreamingShowcase.router.eth[1].mac.queue packetPushed:vector(packetBytes) ETV
attr interpolationmode none
attr recordingmode vector(packetBytes)
attr title "packet pushed, packetBytes"
vector 75 VideoStreamingShowcase.router.eth[1].mac.queue packetPulled:vector(packetBytes) ETV
attr interpolationmode none
attr recordingmode vector(packetBytes)
attr title "packet pulled, packetBytes"
vector 76 VideoStreamingShowcase.router.eth[1].mac.queue queueingTime:vector ETV
attr interpolationmode none
attr recordingmode vector
attr source queueingTime(packetPulled)
attr title "queueing times"
attr unit s
vector 77 VideoStreamingShowcase.router.eth[1].mac txPk:vector(packetBytes) ETV
attr interpolationmode none
attr recordingmode vector(packetBytes)
attr source packetSentToLower
attr title "packets transmitted, packetBytes"
vector 78 VideoStreamingShowcase.switch2.eth[0].mac rxPkOk:vector(packetBytes) ETV
attr interpolationmode none
attr recordingmode vector(packetBytes)
attr source rxPkOk
attr title "packets received OK, packetBytes"
vector 79 VideoStreamingShowcase.switch2.eth[0].mac passedUpPk:vector(packetBytes) ETV
attr interpolationmode none
attr recordingmode vector(packetBytes)
attr source packetSentToUpper
attr title "packets passed to higher layer, packetBytes"
vector 80 VideoStreamingShowcase.switch2.eth[1].mac packetReceivedFromUpper:vector(packetBytes) ETV
attr interpolationmode none
attr recordingmode vector(packetBytes)
attr source packetReceivedFromUpper
attr title "packet bytes from higher layer, packetBytes"
vector 81 VideoStreamingShowcase.switch2.eth[1].mac.queue packetPushed:vector(packetBytes) ETV
attr interpolationmode none
attr recordingmode vector(packetBytes)
attr title "packet pushed, packetBytes"
vector 82 VideoStreamingShowcase.switch2.eth[1].mac.queue packetPulled:vector(packetBytes) ETV
attr interpolationmode none
attr recordingmode vector(packetBytes)
attr title "packet pulled, packetBytes"
vector 83 VideoStreamingShowcase.switch2.eth[1].mac.queue queueingTime:vector ETV
attr interpolationmode none
attr recordingmode vector
attr source queueingTime(packetPulled)
attr title "queueing times"
attr unit s
vector 84 VideoStreamingShowcase.switch2.eth[1].mac txPk:vector(packetBytes) ETV
attr interpolationmode none
attr recordingmode vector(packetBytes)
attr source packetSentToLower
attr title "packets transmitted, packetBytes"
vector 85 VideoStreamingShowcase.host2.eth[0].mac rxPkOk:vector(packetBytes) ETV
attr interpolationmode none
attr recordingmode vector(packetBytes)
attr source rxPkOk
attr title "packets received OK, packetBytes"
vector 86 VideoStreamingShowcase.host2.eth[0].mac passedUpPk:vector(packetBytes) ETV
attr interpolationmode none
attr recordingmode vector(packetBytes)
attr source packetSentToUpper
attr title "packets passed to higher layer, packetBytes"
vector 87 VideoStreamingShowcase.host2.eth[0].tap packetReceivedFromLower:vector(packetBytes) ETV
attr interpolationmode none
attr recordingmode vector(packetBytes)
attr source packetReceivedFromLower
attr title "packets received from higher layer, packetBytes"
vector 88 VideoStreamingShowcase.host2.eth[0].tap packetSent:vector(packetBytes) ETV
attr interpolationmode none
attr recordingmode vector(packetBytes)
attr source packetSent
attr title "packets sent, packetBytes"
vector 89 VideoStreamingShowcase.router.ipv4.arp arpRequestSent:vector(packetBytes) ETV
attr recordingmode vector(packetBytes)
attr source arpRequestSent
attr title "ARP request sent, packetBytes"
vector 90 VideoStreamingShowcase.router.eth[0].encap encapPk:vector(packetBytes) ETV
attr interpolationmode none
attr recordingmode vector(packetBytes)
attr source encapPk
attr title "packets encapsulated, packetBytes"
vector 91 VideoStreamingShowcase.router.eth[0].mac packetReceivedFromUpper:vector(packetBytes) ETV
attr interpolationmode none
attr recordingmode vector(packetBytes)
attr source packetReceivedFromUpper
attr title "packet bytes from higher layer, packetBytes"
vector 92 VideoStreamingShowcase.router.eth[0].mac.queue packetPushed:vector(packetBytes) ETV
attr interpolationmode none
attr recordingmode vector(packetBytes)
attr title "packet pushed, packetBytes"
vector 93 VideoStreamingShowcase.router.eth[0].mac.queue packetPulled:vector(packetBytes) ETV
attr interpolationmode none
attr recordingmode vector(packetBytes)
attr title "packet pulled, packetBytes"
vector 94 VideoStreamingShowcase.router.eth[0].mac.queue queueingTime:vector ETV
attr interpolationmode none
attr recordingmode vector
attr source queueingTime(packetPulled)
attr title "queueing times"
attr unit s
vector 95 VideoStreamingShowcase.router.eth[0].mac txPk:vector(packetBytes) ETV
attr interpolationmode none
attr recordingmode vector(packetBytes)
attr source packetSentToLower
attr title "packets transmitted, packetBytes"
vector 96 VideoStreamingShowcase.switch1.eth[1].mac rxPkOk:vector(packetBytes) ETV
attr interpolationmode none
attr recordingmode vector(packetBytes)
attr source rxPkOk
attr title "packets received OK, packetBytes"
vector 97 VideoStreamingShowcase.switch1.eth[1].mac passedUpPk:vector(packetBytes) ETV
attr interpolationmode none
attr recordingmode vector(packetBytes)
attr source packetSentToUpper
attr title "packets passed to higher layer, packetBytes"
vector 98 VideoStreamingShowcase.switch1.eth[0].mac packetReceivedFromUpper:vector(packetBytes) ETV
attr interpolationmode none
attr recordingmode vector(packetBytes)
attr source packetReceivedFromUpper
attr title "packet bytes from higher layer, packetBytes"
vector 99 VideoStreamingShowcase.switch1.eth[0].mac.queue packetPushed:vector(packetBytes) ETV
attr interpolationmode none
attr recordingmode vector(packetBytes)
attr title "packet pushed, packetBytes"
vector 100 VideoStreamingShowcase.switch1.eth[0].mac.queue packetPulled:vector(packetBytes) ETV
attr interpolationmode none
attr recordingmode vector(packetBytes)
attr title "packet pulled, packetBytes"
vector 101 VideoStreamingShowcase.switch1.eth[0].mac.queue queueingTime:vector ETV
attr interpolationmode none
attr recordingmode vector
attr source queueingTime(packetPulled)
attr title "queueing times"
attr unit s
vector 102 VideoStreamingShowcase.switch1.eth[0].mac txPk:vector(packetBytes) ETV
attr interpolationmode none
attr recordingmode vector(packetBytes)
attr source packetSentToLower
attr title "packets transmitted, packetBytes"
vector 103 VideoStreamingShowcase.host1.eth[0].mac rxPkOk:vector(packetBytes) ETV
attr interpolationmode none
attr recordingmode vector(packetBytes)
attr source rxPkOk
attr title "packets received OK, packetBytes"
vector 104 VideoStreamingShowcase.host1.eth[0].mac passedUpPk:vector(packetBytes) ETV
attr interpolationmode none
attr recordingmode vector(packetBytes)
attr source packetSentToUpper
attr title "packets passed to higher layer, packetBytes"
vector 105 VideoStreamingShowcase.host1.eth[0].tap packetReceivedFromLower:vector(packetBytes) ETV
attr interpolationmode none
attr recordingmode vector(packetBytes)
attr source packetReceivedFromLower
attr title "packets received from higher layer, packetBytes"
vector 106 VideoStreamingShowcase.host1.eth[0].tap packetSent:vector(packetBytes) ETV
attr interpolationmode none
attr recordingmode vector(packetBytes)
attr source packetSent
attr title "packets sent, packetBytes"
vector 107 VideoStreamingShowcase.router.eth[0].encap decapPk:vector(packetBytes) ETV
attr interpolationmode none
attr recordingmode vector(packetBytes)
attr source decapPk
attr title "packets decapsulated, packetBytes"
0	0	0	0
0	0	0	0
0	0	0	0
0	0	0	0
0	69	0.810819741	1
0	69	0.810819741	0
0	91	0.811366693	1
0	91	0.811366693	0
0	136	0.811988409	1
0	136	0.811988409	0
0	157	0.812530859	1
0	157	0.812530859	0
0	223	0.814719018	1
0	223	0.814719018	0
0	245	0.815480529	1
0	245	0.815480529	0
0	316	0.817026372	1
0	316	0.817026372	0
0	333	0.817200818	1
0	333	0.817200818	0
0	377	0.858223883	1
0	377	0.858223883	0
0	431	1.482625014	1
0	431	1.482625014	0
0	475	1.499138963	1
0	475	1.499138963	0
0	519	2.502957836	1
0	519	2.502957836	0
0	541	2.510189908	1
0	541	2.510189908	0
0	585	3.317232149	1
0	585	3.317232149	0
0	651	3.508207617	1
0	651	3.508207617	0
1	0	0	0
1	0	0	0
1	0	0	0
1	0	0	0
1	9	0.010165175	1
1	9	0.010165175	0
1	25	0.650095068	1
1	25	0.650095068	0
1	79	0.811240193	1
1	79	0.811240193	0
1	101	0.811548234	1
1	101	0.811548234	0
1	167	0.812866673	1
1	167	0.812866673	0
1	189	0.81340174	1
1	189	0.81340174	0
1	255	0.816196894	1
1	255	0.816196894	0
1	277	0.816429422	1
1	277	0.816429422	0
1	343	0.817433925	1
1	343	0.817433925	0
1	397	1.482078783	1
1	397	1.482078783	0
1	441	1.498346268	1
1	441	1.498346268	0
1	485	2.502341948	1
1	485	2.502341948	0
1	551	2.510478572	1
1	551	2.510478572	0
1	595	3.357935575	1
1	595	3.357935575	0
1	617	3.507588667	1
1	617	3.507588667	0
2	0	0	0
2	0	0	0
2	0	0	0
2	0	0	0
2	10	0.010165175	1
2	10	0.010165175	0
2	35	0.810008798	1
2	35	0.810008798	0
2	57	0.810693241	1
2	57	0.810693241	0
2	123	0.811863509	1
2	123	0.811863509	0
2	145	0.812127559	1
2	145	0.812127559	0
2	211	0.814594118	1
2	211	0.814594118	0
2	233	0.815030829	1
2	233	0.815030829	0
2	295	0.816699872	1
2	295	0.816699872	0
2	312	0.817018318	1
2	312	0.817018318	0
2	365	0.858098983	1
2	365	0.858098983	0
2	387	0.873972047	1
2	387	0.873972047	0
2	419	1.482500114	1
2	419	1.482500114	0
2	463	1.499014063	1
2	463	1.499014063	0
2	507	2.502832936	1
2	507	2.502832936	0
2	529	2.510065008	1
2	529	2.510065008	0
2	573	3.317102449	1
2	573	3.317102449	0
2	639	3.508082717	1
2	639	3.508082717	0
3	0	0	0
3	0	0	0
3	0	0	0
3	0	0	0
3	47	0.810124098	1
3	47	0.810124098	0
3	113	0.811685934	1
3	113	0.811685934	0
3	179	0.812991573	1
3	179	0.812991573	0
3	201	0.81410264	1